 Gaussian 16, Revision C.01,
 Gaussian 16:  ES64L-G16RevC.01  3-Jul-2019

 ----------------------------------------------
 # opt freq hf/6-311++g(2d,p) geom=connectivity
 ----------------------------------------------

 -------------------
 Title Card Required
 -------------------
 Symbolic Z-matrix:
 Charge =  0 Multiplicity = 1

 SCF Done:  E(RHF) =  -56.2156611423     A.U. after   11 cycles
 SCF Done:  E(RHF) =  -56.2157985697     A.U. after    9 cycles
 SCF Done:  E(RHF) =  -56.2158122861     A.U. after    9 cycles
 Optimization completed.
    -- Stationary point found.
 Normal termination of Gaussian 16 at Mon Mar 10 15:46:37 2025.

 ----------------------------------------------------------------------
 #N Geom=AllCheck Guess=TCheck SCRF=Check GenChk RHF/6-311++G(2d,p) Fre
 q
 ----------------------------------------------------------------------

 Structure from the checkpoint file:  "test2.chk"
 -------------------
 Title Card Required
 -------------------
 Charge =  0 Multiplicity = 1

                         Standard orientation:
 ---------------------------------------------------------------------
 Center     Atomic      Atomic             Coordinates (Angstroms)
 Number     Number       Type             X           Y           Z
 ---------------------------------------------------------------------
      1          7           0        0.000000   -0.000000    0.107644
      2          1           0       -0.000000    0.934009   -0.251169
      3          1           0       -0.808876   -0.467005   -0.251169
      4          1           0        0.808876   -0.467005   -0.251169
 ---------------------------------------------------------------------

 SCF Done:  E(RHF) =  -56.2158122861     A.U. after    1 cycles

 The electronic state is 1-A1.
 Alpha  occ. eigenvalues --  -15.53650  -1.14728  -0.63645  -0.63645  -0.42614
 Alpha virt. eigenvalues --    0.04378   0.07388   0.07388   0.17997   0.21761
 Alpha virt. eigenvalues --    0.21761   0.24388   0.31207   0.31207   0.32733
 Alpha virt. eigenvalues --    0.64846   0.64846   0.81954   0.99288   1.01450

 Mulliken charges:
               1
     1  N   -0.688088
     2  H    0.229363
     3  H    0.229363
     4  H    0.229363
 Sum of Mulliken charges =  -0.00000

 Dipole moment (field-independent basis, Debye):
    X=             -0.0000    Y=             -0.0000    Z=             -1.6621  Tot=              1.6621
 Quadrupole moment (field-independent basis, Debye-Ang):
   XX=             -6.1498   YY=             -6.1498   ZZ=             -9.3864
   XY=             -0.0000   XZ=             -0.0000   YZ=              0.0000

  Exact polarizability:      10.515      -0.000      10.515      -0.000       0.000      11.060
 Approx polarizability:       8.869      -0.000       8.869      -0.000       0.000       8.730

                      1                      2                      3
                     A1                      E                      E
 Frequencies --   1120.8815              1794.1919              1794.1919
 Red. masses --      1.1823                 1.0676                 1.0676
 Frc consts  --      0.8752                 2.0249                 2.0249
 IR Inten    --    210.5603                25.9577                25.9577
 Raman Activ --      2.6066                 4.6605                 4.6605

                      4                      5                      6
                     A1                      E                      E
 Frequencies --   3688.2256              3810.8937              3810.8937
 Red. masses --      1.0255                 1.0915                 1.0915
 Frc consts  --      8.2187                 9.3392                 9.3392
 IR Inten    --      0.7141                 5.5275                 5.5275
 Raman Activ --    125.7102                50.8061                50.8061

 - Thermochemistry -
 -------------------
 Temperature   298.150 Kelvin.  Pressure   1.00000 Atm.
 Atom     1 has atomic number  7 and mass  14.00307

 Molecular mass:    17.02655 amu.
 Principal axes and moments of inertia in atomic units:
                           1         2         3
     Eigenvalues --     5.85276   5.85276   9.41903
           X           -0.34270   0.93944  -0.00000
           Y            0.93944   0.34270  -0.00000
           Z            0.00000   0.00000   1.00000
 This molecule is an oblate symmetric top.
 Rotational symmetry number  3.
 Rotational temperatures (Kelvin)     14.79883    14.79883     9.19563
 Rotational constants (GHZ):         308.35755   308.35755   191.60581
 Zero-point vibrational energy      95816.6 (Joules/Mol)
                                   22.90071 (Kcal/Mol)
 Vibrational temperatures:   1612.70  2581.44  2581.44  5306.53  5483.03
          (Kelvin)           5483.03

 Zero-point correction=                           0.036495 (Hartree/Particle)
 Thermal correction to Energy=                    0.039353
 Thermal correction to Enthalpy=                  0.040297
 Thermal correction to Gibbs Free Energy=         0.018506
 Sum of electronic and zero-point Energies=            -56.179318
 Sum of electronic and thermal Energies=               -56.176459
 Sum of electronic and thermal Enthalpies=             -56.175515
 Sum of electronic and thermal Free Energies=          -56.197307

                     E (Thermal)             CV                S
                      KCal/Mol        Cal/Mol-Kelvin    Cal/Mol-Kelvin
 Total                   24.694              6.276             45.864
 Electronic               0.000              0.000              0.000
 Translational            0.889              2.981             34.441
 Rotational               0.889              2.981             11.359
 Vibrational             22.917              0.314              0.064

 Optimization completed.
    -- Stationary point found.
 Normal termination of Gaussian 16 at Mon Mar 10 15:46:39 2025.
