 Gaussian 16, Revision C.01,
 Gaussian 16:  ES64L-G16RevC.01  3-Jul-2019

 ----------------------------------------------
 # opt freq hf/6-311++g(2d,p) geom=connectivity
 ----------------------------------------------

 -------------------
 Title Card Required
 -------------------
 Symbolic Z-matrix:
 Charge =  0 Multiplicity = 1

 SCF Done:  E(RHF) =  -76.0533008085     A.U. after   10 cycles
 SCF Done:  E(RHF) =  -76.0542994251     A.U. after    9 cycles
 SCF Done:  E(RHF) =  -76.0543286130     A.U. after    8 cycles
 Optimization completed.
    -- Stationary point found.
 Normal termination of Gaussian 16 at Mon Mar 10 15:46:41 2025.

 ----------------------------------------------------------------------
 #N Geom=AllCheck Guess=TCheck SCRF=Check GenChk RHF/6-311++G(2d,p) Fre
 q
 ----------------------------------------------------------------------

 Structure from the checkpoint file:  "test3.chk"
 -------------------
 Title Card Required
 -------------------
 Charge =  0 Multiplicity = 1

                         Standard orientation:
 ---------------------------------------------------------------------
 Center     Atomic      Atomic             Coordinates (Angstroms)
 Number     Number       Type             X           Y           Z
 ---------------------------------------------------------------------
      1          8           0       -0.000000    0.000000    0.113038
      2          1           0       -0.000000    0.754110   -0.452151
      3          1           0       -0.000000   -0.754110   -0.452151
 ---------------------------------------------------------------------

 SCF Done:  E(RHF) =  -76.0543286130     A.U. after    1 cycles

 The electronic state is 1-A1.
 Alpha  occ. eigenvalues --  -20.56300  -1.36096  -0.73138  -0.58458  -0.51052
 Alpha virt. eigenvalues --    0.04409   0.07244   0.23954   0.24558   0.25237
 Alpha virt. eigenvalues --    0.26036   0.31774   0.32177   0.68953   0.74097
 Alpha virt. eigenvalues --    1.18798   1.21868   1.24324   1.39272   1.39581

 Mulliken charges:
               1
     1  O   -0.559680
     2  H    0.279840
     3  H    0.279840
 Sum of Mulliken charges =  -0.00000

 Dipole moment (field-independent basis, Debye):
    X=             -0.0000    Y=              0.0000    Z=             -2.1164  Tot=              2.1164
 Quadrupole moment (field-independent basis, Debye-Ang):
   XX=             -7.5595   YY=             -4.1906   ZZ=             -6.2860
   XY=              0.0000   XZ=              0.0000   YZ=              0.0000

  Exact polarizability:       5.875       0.000       7.575       0.000       0.000       6.113
 Approx polarizability:       4.598       0.000       6.367       0.000       0.000       5.072

                      1                      2                      3
                     A1                     A1                     B2
 Frequencies --   1742.9682              4130.3422              4232.2447
 Red. masses --      1.0830                 1.0449                 1.0836
 Frc consts  --      1.9384                10.5027                11.4361
 IR Inten    --     99.2501                21.1431                88.5105
 Raman Activ --      3.6214                75.5911                34.7319

 - Thermochemistry -
 -------------------
 Temperature   298.150 Kelvin.  Pressure   1.00000 Atm.
 Atom     1 has atomic number  8 and mass  15.99491

 Molecular mass:    18.01056 amu.
 Principal axes and moments of inertia in atomic units:
                           1         2         3
     Eigenvalues --     2.04199   4.09338   6.13537
           X            0.00000   0.00000   1.00000
           Y            1.00000   0.00000  -0.00000
           Z           -0.00000   1.00000  -0.00000
 This molecule is an asymmetric top.
 Rotational symmetry number  2.
 Rotational temperatures (Kelvin)     42.41640    21.15951    14.11714
 Rotational constants (GHZ):         883.81430   440.89259   294.15350
 Zero-point vibrational energy      60444.6 (Joules/Mol)
                                   14.44662 (Kcal/Mol)
 Vibrational temperatures:   2507.74  5942.64  6089.26
          (Kelvin)

 Zero-point correction=                           0.023022 (Hartree/Particle)
 Thermal correction to Energy=                    0.025856
 Thermal correction to Enthalpy=                  0.026801
 Thermal correction to Gibbs Free Energy=         0.005443
 Sum of electronic and zero-point Energies=            -76.031306
 Sum of electronic and thermal Energies=               -76.028472
 Sum of electronic and thermal Enthalpies=             -76.027528
 Sum of electronic and thermal Free Energies=          -76.048885

                     E (Thermal)             CV                S
                      KCal/Mol        Cal/Mol-Kelvin    Cal/Mol-Kelvin
 Total                   16.225              5.993             44.950
 Electronic               0.000              0.000              0.000
 Translational            0.889              2.981             34.608
 Rotational               0.889              2.981             10.338
 Vibrational             14.448              0.031              0.004

 Optimization completed.
    -- Stationary point found.
 Normal termination of Gaussian 16 at Mon Mar 10 15:46:43 2025.
