 Gaussian 16, Revision C.01,
 Gaussian 16:  ES64L-G16RevC.01  3-Jul-2019

 ----------------------------------------------
 # opt freq hf/6-311++g(2d,p) geom=connectivity
 ----------------------------------------------

 -------------------
 Title Card Required
 -------------------
 Symbolic Z-matrix:
 Charge =  0 Multiplicity = 1

 SCF Done:  E(RHF) =  -40.2099243230     A.U. after    9 cycles
 SCF Done:  E(RHF) =  -40.2104092705     A.U. after    7 cycles
 SCF Done:  E(RHF) =  -40.2104104163     A.U. after    6 cycles
 Optimization completed.
    -- Stationary point found.
 Normal termination of Gaussian 16 at Mon Mar 10 15:46:31 2025.

 ----------------------------------------------------------------------
 #N Geom=AllCheck Guess=TCheck SCRF=Check GenChk RHF/6-311++G(2d,p) Fre
 q
 ----------------------------------------------------------------------

 Structure from the checkpoint file:  "test1.chk"
 -------------------
 Title Card Required
 -------------------
 Charge =  0 Multiplicity = 1

                         Standard orientation:
 ---------------------------------------------------------------------
 Center     Atomic      Atomic             Coordinates (Angstroms)
 Number     Number       Type             X           Y           Z
 ---------------------------------------------------------------------
      1          6           0        0.000000    0.000000    0.000000
      2          1           0        0.625420    0.625420    0.625420
      3          1           0       -0.625420   -0.625420    0.625420
      4          1           0       -0.625420    0.625420   -0.625420
      5          1           0        0.625420   -0.625420   -0.625420
 ---------------------------------------------------------------------

 SCF Done:  E(RHF) =  -40.2104104163     A.U. after    1 cycles

 The electronic state is 1-A1.
 Alpha  occ. eigenvalues --  -11.20401  -0.94539  -0.54665  -0.54665  -0.54665
 Alpha virt. eigenvalues --    0.04189   0.07836   0.07836   0.07836   0.15263
 Alpha virt. eigenvalues --    0.15263   0.15263   0.18945   0.30969   0.30969
 Alpha virt. eigenvalues --    0.30969   0.38334   0.54838   0.54838   0.54838

 Mulliken charges:
               1
     1  C   -0.465450
     2  H    0.116363
     3  H    0.116363
     4  H    0.116363
     5  H    0.116363
 Sum of Mulliken charges =   0.00000

 Dipole moment (field-independent basis, Debye):
    X=              0.0000    Y=              0.0000    Z=             -0.0000  Tot=              0.0000
 Quadrupole moment (field-independent basis, Debye-Ang):
   XX=             -8.4081   YY=             -8.4081   ZZ=             -8.4081
   XY=             -0.0000   XZ=              0.0000   YZ=              0.0000

  Exact polarizability:      14.294      -0.000      14.294       0.000       0.000      14.294
 Approx polarizability:      11.921      -0.000      11.921      -0.000       0.000      11.921

                      1                      2                      3
                     T2                     T2                     T2
 Frequencies --   1453.3834              1453.3834              1453.3835
 Red. masses --      1.1791                 1.1791                 1.1791
 Frc consts  --      1.4675                 1.4675                 1.4675
 IR Inten    --     10.5625                10.5625                10.5625
 Raman Activ --      0.2442                 0.2442                 0.2442

                      4                      5                      6
                      E                      E                     A1
 Frequencies --   1665.8943              1665.8946              3148.6696
 Red. masses --      1.0078                 1.0078                 1.0078
 Frc consts  --      1.6479                 1.6479                 5.8869
 IR Inten    --      0.0000                 0.0000                 0.0000
 Raman Activ --     13.0827                13.0827               176.5178

                      7                      8                      9
                     T2                     T2                     T2
 Frequencies --   3246.4492              3246.4492              3246.4492
 Red. masses --      1.1015                 1.1015                 1.1015
 Frc consts  --      6.8400                 6.8400                 6.8400
 IR Inten    --     39.0812                39.0812                39.0813
 Raman Activ --     63.9236                63.9236                63.9236

 - Thermochemistry -
 -------------------
 Temperature   298.150 Kelvin.  Pressure   1.00000 Atm.
 Atom     1 has atomic number  6 and mass  12.00000

 Molecular mass:    16.03130 amu.
 Principal axes and moments of inertia in atomic units:
                           1         2         3
     Eigenvalues --    11.26203  11.26203  11.26203
           X            0.80809   0.48314  -0.33699
           Y           -0.58906   0.66280  -0.46229
           Z            0.00000   0.57208   0.82020
 This molecule is a spherical top.
 Rotational symmetry number 12.
 Rotational temperatures (Kelvin)      7.69079     7.69079     7.69079
 Rotational constants (GHZ):         160.25014   160.25014   160.25014
 Zero-point vibrational energy     123095.5 (Joules/Mol)
                                   29.42052 (Kcal/Mol)
 Vibrational temperatures:   2091.09  2091.09  2091.09  2396.85  2396.85
          (Kelvin)           4530.23  4670.92  4670.92  4670.92

 Zero-point correction=                           0.046885 (Hartree/Particle)
 Thermal correction to Energy=                    0.049740
 Thermal correction to Enthalpy=                  0.050684
 Thermal correction to Gibbs Free Energy=         0.029589
 Sum of electronic and zero-point Energies=            -40.163526
 Sum of electronic and thermal Energies=               -40.160670
 Sum of electronic and thermal Enthalpies=             -40.159726
 Sum of electronic and thermal Free Energies=          -40.180821

                     E (Thermal)             CV                S
                      KCal/Mol        Cal/Mol-Kelvin    Cal/Mol-Kelvin
 Total                   31.212              6.309             44.399
 Electronic               0.000              0.000              0.000
 Translational            0.889              2.981             34.261
 Rotational               0.889              2.981             10.083
 Vibrational             29.435              0.348              0.055

 Optimization completed.
    -- Stationary point found.
 Normal termination of Gaussian 16 at Mon Mar 10 15:46:34 2025.
